

7 atoms
3 atom types
0.0 4.9907 xlo xhi
0.0 4.9907 ylo yhi
0.0 4.9907 zlo zhi

Atoms

1 1 -1.0 0.1 0.1 0.1
2 3  1.0 0.1 2.8 2.8
3 1  2.0 2.8 0.0 2.8
4 2 -1.0 2.8 2.8 0.1
5 1 -1.0 1.4 1.4 1.4
6 3  1.0 1.4 4.4 4.4
7 1 -1.0 4.4 1.4 4.4
